(C) 2022 by FIZ Karlsruhe - Leibniz Institute for Information Infrastructure.  All rights reserved.
data_977903-ICSD
_database_code_ICSD 977903
_audit_creation_date 2015-02-01
_chemical_name_common 'Iron selenide'
_chemical_formula_structural 'Fe Se'
_chemical_formula_sum 'Fe1 Se1'
_chemical_name_structure_type FeSe
_exptl_crystal_density_diffrn 5.7
_diffrn_ambient_temperature 293.
_citation_title 'Synthesis and crystal growth of tetragonal beta - Fe1.00 Se'
loop_
_citation_id
_citation_journal_full
_citation_year
_citation_journal_volume
_citation_page_first
_citation_page_last
_citation_journal_id_ASTM
primary 'Zeitschrift fuer Anorganische und Allgemeine Chemie (1950) (DE)' 2014
640 1600 1606 ZAACAB
loop_
_citation_author_citation_id
_citation_author_name
primary 'Koz, Cevriye'
primary 'Schmidt, Marcus'
primary 'Borrmann, Horst'
primary 'Burkhardt, Ulrich'
primary 'Roessler, Sahana'
primary 'Carrillo-Cabrera, Wilder'
primary 'Schnelle, Walter'
primary 'Schwarz, Ulrich'
primary 'Grin, Yuri'
_cell_length_a 3.7719(1)
_cell_length_b 3.7719(1)
_cell_length_c 5.5237(3)
_cell_angle_alpha 90.
_cell_angle_beta 90.
_cell_angle_gamma 90.
_cell_volume 78.59
_cell_formula_units_Z 2
_space_group_name_H-M_alt 'P 4/n m m Z'
_space_group_IT_number 129
loop_
_space_group_symop_id
_space_group_symop_operation_xyz
1 'y+1/2, x+1/2, -z'
2 '-y, x+1/2, -z'
3 'y+1/2, -x, -z'
4 '-y, -x, -z'
5 'x+1/2, y+1/2, -z'
6 '-x, y+1/2, -z'
7 'x+1/2, -y, -z'
8 '-x, -y, -z'
9 '-y+1/2, -x+1/2, z'
10 'y, -x+1/2, z'
11 '-y+1/2, x, z'
12 'y, x, z'
13 '-x+1/2, -y+1/2, z'
14 'x, -y+1/2, z'
15 '-x+1/2, y, z'
16 'x, y, z'
loop_
_atom_type_symbol
_atom_type_oxidation_number
Se2- -2
Fe2+ 2
loop_
_atom_site_label
_atom_site_type_symbol
_atom_site_symmetry_multiplicity
_atom_site_Wyckoff_symbol
_atom_site_fract_x
_atom_site_fract_y
_atom_site_fract_z
_atom_site_U_iso_or_equiv
_atom_site_occupancy
Se1 Se2- 2 c 0.25 0.25 0.26675(11) 0.0131(3) 1
Fe1 Fe2+ 2 a 0.75 0.25 0. 0.0119(3) 1
loop_
_atom_site_aniso_label
_atom_site_aniso_type_symbol
_atom_site_aniso_U_11
_atom_site_aniso_U_22
_atom_site_aniso_U_33
_atom_site_aniso_U_12
_atom_site_aniso_U_13
_atom_site_aniso_U_23
Se1 Se2- 0.0133(3) 0.0133(3) 0.0126(4) 0. 0. 0.
Fe1 Fe2+ 0.0096(4) 0.0096(4) 0.0166(5) 0. 0. 0.
#End of TTdata_977903-ICSD
#
