(C) 2022 by FIZ Karlsruhe - Leibniz Institute for Information Infrastructure.  All rights reserved.
data_202497-ICSD
_database_code_ICSD 202497
_audit_creation_date 1988-05-17
_audit_update_record 1997-05-13
_chemical_name_common 'Yttrium barium copper oxide (1/2/3/6.83)'
_chemical_formula_structural 'Y Ba2 Cu3 O6.83'
_chemical_formula_sum 'Ba2 Cu3 O6.83 Y1'
_chemical_name_structure_type YBa2Cu3O7-x(tet)
_exptl_crystal_density_diffrn 6.35
_citation_title

;
Diamagnetic and structural characterization of orthorhombic high-temperature
superconductors in the system Y-Ba-Cu-O
;
loop_
_citation_id
_citation_journal_full
_citation_year
_citation_journal_volume
_citation_page_first
_citation_page_last
_citation_journal_id_ASTM
primary 'Canadian Journal of Physics' 1987 65 1145 1148 CJPHAD
loop_
_citation_author_citation_id
_citation_author_name
primary 'Raudsepp, M.'
primary 'Hawthorne, F.C.'
primary 'Zhou, X.-Z.'
primary 'Maartense, I.'
primary 'Morrish, A.H.'
primary 'Luo, Y.L.'
_cell_length_a 3.8259(2)
_cell_length_b 3.8864(3)
_cell_length_c 11.669(1)
_cell_angle_alpha 90.
_cell_angle_beta 90.
_cell_angle_gamma 90.
_cell_volume 173.51
_cell_formula_units_Z 1
_space_group_name_H-M_alt 'P m m m'
_space_group_IT_number 47
loop_
_space_group_symop_id
_space_group_symop_operation_xyz
1 'x, -y, z'
2 '-x, y, z'
3 'x, y, -z'
4 '-x, -y, -z'
5 '-x, y, -z'
6 'x, -y, -z'
7 '-x, -y, z'
8 'x, y, z'
loop_
_atom_type_symbol
_atom_type_oxidation_number
Y3+ 3
Ba2+ 2
Cu2+ 2.22
O2- -2
loop_
_atom_site_label
_atom_site_type_symbol
_atom_site_symmetry_multiplicity
_atom_site_Wyckoff_symbol
_atom_site_fract_x
_atom_site_fract_y
_atom_site_fract_z
_atom_site_B_iso_or_equiv
_atom_site_occupancy
Y1 Y3+ 1 h 0.5 0.5 0.5 0.8 1.
Ba1 Ba2+ 2 t 0.5 0.5 0.1856(3) 0.8 1.
Cu1 Cu2+ 2 i 0.054(4) 0 0 0.7 0.5
Cu2 Cu2+ 2 q 0 0 0.3563(5) 0.7 1.
O1 O2- 1 e 0 0.5 0 1.5 0.83(6)
O2 O2- 2 s 0.5 0 0.380(2) 0.8 1.
O3 O2- 2 r 0 0.5 0.378(2) 0.8 1.
O4 O2- 2 q 0 0 0.160(3) 0.8 1.
#End of TTdata_202497-ICSD
#
