(C) 2022 by FIZ Karlsruhe - Leibniz Institute for Information Infrastructure.  All rights reserved.
data_1237-ICSD
_database_code_ICSD 1237
_audit_creation_date 1980-01-01
_audit_update_record 2012-02-01
_chemical_name_common 'Barium silicide (1/2)'
_chemical_formula_structural 'Ba Si2'
_chemical_formula_sum 'Ba1 Si2'
_chemical_name_structure_type BaSi2
_exptl_crystal_density_diffrn 4.25
_citation_title 'Kristallstruktur von Bariumdisilicid bei hohen Drucken'
loop_
_citation_id
_citation_journal_full
_citation_year
_citation_journal_volume
_citation_page_first
_citation_page_last
_citation_journal_id_ASTM
primary 'Angewandte Chemie' 1977 89 673 674 ANCEAD
loop_
_citation_author_citation_id
_citation_author_name
primary 'Evers, J.'
primary 'Oehlinger, G.'
primary 'Weiss, A.'
_cell_length_a 4.047(3)
_cell_length_b 4.047(3)
_cell_length_c 5.330(5)
_cell_angle_alpha 90.
_cell_angle_beta 90.
_cell_angle_gamma 120.
_cell_volume 75.6
_cell_formula_units_Z 1
_space_group_name_H-M_alt 'P -3 m 1'
_space_group_IT_number 164
loop_
_space_group_symop_id
_space_group_symop_operation_xyz
1 'x-y, -y, -z'
2 '-x, -x+y, -z'
3 'y, x, -z'
4 'x-y, x, -z'
5 'y, -x+y, -z'
6 '-x, -y, -z'
7 '-x+y, y, z'
8 'x, x-y, z'
9 '-y, -x, z'
10 '-x+y, -x, z'
11 '-y, x-y, z'
12 'x, y, z'
loop_
_atom_type_symbol
_atom_type_oxidation_number
Ba0+ 0
Si0+ 0
loop_
_atom_site_label
_atom_site_type_symbol
_atom_site_symmetry_multiplicity
_atom_site_Wyckoff_symbol
_atom_site_fract_x
_atom_site_fract_y
_atom_site_fract_z
_atom_site_B_iso_or_equiv
_atom_site_occupancy
Ba1 Ba0+ 1 a 0 0 0 . 1.
Si1 Si0+ 2 d 0.3333 0.6667 0.432 . 1.
#End of TTdata_1237-ICSD
#
