(C) 2022 by FIZ Karlsruhe - Leibniz Institute for Information Infrastructure.  All rights reserved.
data_602228-ICSD
_database_code_ICSD 602228
_audit_creation_date 2011-02-01
_audit_update_record 2019-02-01
_chemical_name_common 'Barium silicide (1/2)'
_chemical_formula_structural 'Ba Si2'
_chemical_formula_sum 'Ba1 Si2'
_chemical_name_structure_type SrSi2
_exptl_crystal_density_diffrn 4.25
_citation_title

;
Solid solutions M1-xSrxSi2 (M ident to Ca, Eu, Ba) and BaSi2-yGey with
SrSi2-type structure
;
_publ_section_comment 'Cell and Type only determined'
loop_
_citation_id
_citation_journal_full
_citation_year
_citation_journal_volume
_citation_page_first
_citation_page_last
_citation_journal_id_ASTM
primary 'Journal of the Less-Common Metals' 1980 69 399 402 JCOMAH
loop_
_citation_author_citation_id
_citation_author_name
primary 'Evers, Juergen'
primary 'Oehlinger, Gilbert'
primary 'Weiss, Armin'
_cell_length_a 6.715(3)
_cell_length_b 6.715(3)
_cell_length_c 6.715(3)
_cell_angle_alpha 90.
_cell_angle_beta 90.
_cell_angle_gamma 90.
_cell_volume 302.79
_cell_formula_units_Z 4
_space_group_name_H-M_alt 'P 43 3 2'
_space_group_IT_number 212
loop_
_space_group_symop_id
_space_group_symop_operation_xyz
1 'z+1/4, y+3/4, -x+3/4'
2 '-z+3/4, y+1/4, x+3/4'
3 'y+1/4, x+3/4, -z+3/4'
4 '-y+3/4, x+1/4, z+3/4'
5 'x+1/4, z+3/4, -y+3/4'
6 '-x+3/4, z+1/4, y+3/4'
7 'z+3/4, -y+3/4, x+1/4'
8 '-z+1/4, -y+1/4, -x+1/4'
9 'y+3/4, -x+3/4, z+1/4'
10 '-y+1/4, -x+1/4, -z+1/4'
11 'x+3/4, -z+3/4, y+1/4'
12 '-x+1/4, -z+1/4, -y+1/4'
13 '-y+1/2, -z, x+1/2'
14 '-y, z+1/2, -x+1/2'
15 'y+1/2, -z+1/2, -x'
16 'y, z, x'
17 'z+1/2, -x+1/2, -y'
18 '-z+1/2, -x, y+1/2'
19 '-z, x+1/2, -y+1/2'
20 'z, x, y'
21 '-x+1/2, -y, z+1/2'
22 '-x, y+1/2, -z+1/2'
23 'x+1/2, -y+1/2, -z'
24 'x, y, z'
loop_
_atom_type_symbol
_atom_type_oxidation_number
Ba0+ 0
Si0+ 0
loop_
_atom_site_label
_atom_site_type_symbol
_atom_site_symmetry_multiplicity
_atom_site_Wyckoff_symbol
_atom_site_fract_x
_atom_site_fract_y
_atom_site_fract_z
_atom_site_B_iso_or_equiv
_atom_site_occupancy
Ba1 Ba0+ 4 a 0.125 0.125 0.125 . 1.
Si1 Si0+ 8 c 0.423 0.423 0.423 . 1.
#End of TTdata_602228-ICSD
#
